  24
Step 5
  N     -3.91764118      4.46793526      0.50922190
  N     -4.08545044      3.22063549      0.43742996
  C     -2.36634571      6.26303634      0.72848032
  C     -1.07903050      6.77870471      0.86732033
  C      0.01322102      5.91212686      0.92659378
  C     -0.18530812      4.52777056      0.84660813
  C     -1.46593907      4.00695584      0.70796795
  C     -2.56679576      4.87894935      0.64826240
  C     -6.53717581      3.68159621      0.23892094
  C     -5.43628983      2.80962070      0.29834666
  C     -5.63670374      1.42554654      0.21781743
  C     -6.92400959      0.90987400      0.07890766
  C     -8.01628941      1.77643430      0.01989999
  C     -7.81779897      3.16077658      0.10022286
  H      0.66734797      3.85626252      0.89306665
  H     -1.64134930      2.93935917      0.64410372
  H     -0.92871412      7.85230570      0.92906509
  H      1.01818270      6.30978975      1.03397728
  H     -3.23568021      6.91094926      0.67966944
  H     -7.07429768     -0.16371635      0.01690754
  H     -9.02124503      1.37876714     -0.08752481
  H     -4.76734822      0.77764780      0.26643791
  H     -8.67047897      3.83226974      0.05398928
  H     -6.36179421      4.74918248      0.30304342
