  12
Step 11
  C     -0.24393567      4.89041108     -0.63472283
  C     -1.55785496      5.38326460     -1.16476228
  C     -1.31576185      3.89328644     -1.02869102
  H     -1.59791305      5.79143230     -2.16974457
  H     -2.25710879      5.82112902     -0.46079542
  H     -0.05570913      4.99452516      0.42828557
  H      0.63547506      4.95463977     -1.26760879
  N     -1.98962007      3.23482307      0.03676364
  H     -1.15708873      3.32524928     -1.95007546
  C     -2.35943809      2.03135446     -0.13268896
  H     -2.87613741      1.51431642      0.67648150
  H     -2.18978286      1.46181544     -1.05847890
