  13
Step 9
 C         -1.6803306305        0.0643694914       -0.2046302356
 C         -0.4877298454       -0.5024390508        0.5645101296
 H         -2.5951674798       -0.0384761773        0.3704420875
 H         -1.8215452684       -0.4541973178       -1.1496329886
 H         -1.5430734098        1.1382847080       -0.4225492765
 C          0.8314236612       -0.4345395152       -0.2055862255
 H         -0.3771707112        0.0246621271        1.5067668553
 H         -0.6845065727       -1.5428838761        0.8093365214
 C          1.4086177136        0.9526864728       -0.3630908888
 H          0.7225372779       -0.8668150195       -1.1993133149
 H          1.5930437984       -1.0341210927        0.2917720572
 O          0.9634910666        1.9449836865        0.1603562127
 H          2.3028832622        1.0275046156       -0.9867559704
