 6
 Step 6
  C -0.041074 0.604885 0.073811
  H -0.774557 1.318864 0.418205
  H 0.587033 0.977028 -0.728930
  C -0.098487 -0.734734 0.505771
  H 0.782553 -1.361331 0.412945
  H -0.415944 -0.804715 -0.681793
 6
 Step 6
  C -0.294096 0.302888 -0.173319
  H -0.787196 0.998102 0.503361
  H 0.426596 0.881118 -0.758743
  C 0.448144 -0.748541 0.507694
  H 1.295179 -1.326684 0.774578
  H -1.066511 -0.071558 -0.882819
