  23
Step 15
  C     -1.71788855     -1.55259724     -0.60472463
  N     -1.48430180     -0.19012922     -0.12775513
  C     -0.40269082      0.45071980     -0.88353400
  C      0.96865940      0.03982372     -0.33979730
  C      1.34042288      0.72264099      0.96075408
  O      0.79337233      1.70537249      1.41128687
  C     -2.72903979      0.56383015     -0.01947276
  C     -3.66079878     -0.01428187      1.04673835
  O     -3.42067282     -0.91681215      1.81341431
  C     -2.53628042      2.05216753      0.33980633
  H     -3.32788362      0.52066900     -0.95824123
  H     -4.64765831      0.50641588      1.06930949
  H     -0.46229162      0.21550423     -1.96152634
  H     -0.47451539      1.53315511     -0.78722951
  H      1.05279018     -1.04410828     -0.19638129
  H      1.76238678      0.29728288     -1.05938676
  H      2.21126589      0.27320103      1.48922889
  H     -2.37980526     -2.08264518      0.07903396
  H     -0.77369446     -2.10262129     -0.63846924
  H     -2.15387243     -1.57461441     -1.62238804
  H     -2.23089297      2.64508357     -0.52494926
  H     -3.47829590      2.47879222      0.69950760
  H     -1.77840954      2.15187978      1.12013359
 23
 Step 6
  C -1.839559 -1.604510 -0.791977
  N -1.518673 -0.289003 -0.276851
  C -0.411387 0.321751 -0.998295
  C 0.908178 0.194294 -0.238895
  C 0.966334 0.854775 1.105371
  O 0.082705 1.680801 1.606734
  C -2.686656 0.545557 -0.040296
  C -3.547248 0.001689 1.089182
  O -3.261282 -0.896044 1.835259
  C -2.339667 1.980046 0.321850
  H -3.341420 0.559851 -0.924898
  H -4.496457 0.529371 1.206777
  H -0.285253 -0.146805 -1.971896
  H -0.603473 1.364366 -1.200437
  H 1.149179 -0.858405 -0.103711
  H 1.709678 0.599281 -0.861401
  H 1.904703 0.880053 1.628445
  H -2.541256 -2.104873 -0.143896
  H -0.940805 -2.210606 -0.823564
  H -2.257169 -1.569176 -1.803134
  H -2.193807 2.669526 -0.493572
  H -2.888590 2.416328 1.141719
  H -0.767513 1.771190 1.093103
