  23
Step 15
  C     -1.71788855     -1.55259724     -0.60472463
  N     -1.48430180     -0.19012922     -0.12775513
  C     -0.40269082      0.45071980     -0.88353400
  C      0.96865940      0.03982372     -0.33979730
  C      1.34042288      0.72264099      0.96075408
  O      0.79337233      1.70537249      1.41128687
  C     -2.72903979      0.56383015     -0.01947276
  C     -3.66079878     -0.01428187      1.04673835
  O     -3.42067282     -0.91681215      1.81341431
  C     -2.53628042      2.05216753      0.33980633
  H     -3.32788362      0.52066900     -0.95824123
  H     -4.64765831      0.50641588      1.06930949
  H     -0.46229162      0.21550423     -1.96152634
  H     -0.47451539      1.53315511     -0.78722951
  H      1.05279018     -1.04410828     -0.19638129
  H      1.76238678      0.29728288     -1.05938676
  H      2.21126589      0.27320103      1.48922889
  H     -2.37980526     -2.08264518      0.07903396
  H     -0.77369446     -2.10262129     -0.63846924
  H     -2.15387243     -1.57461441     -1.62238804
  H     -2.23089297      2.64508357     -0.52494926
  H     -3.47829590      2.47879222      0.69950760
  H     -1.77840954      2.15187978      1.12013359
