  14
Step 17
  C     -2.52526266     -0.78508656      0.13514022
  C     -1.91270670      0.53765627     -0.26583348
  C     -2.63715578      1.66706451     -0.20707922
  C     -4.04415080      1.63403509      0.20716231
  C     -4.71425691      0.47148192      0.26577433
  C     -4.03948049     -0.82081592     -0.13506195
  H     -0.86091111      0.56512049     -0.53977601
  H     -2.18793628      2.62757095     -0.44654146
  H     -4.53849100      2.57209327      0.44667711
  H     -5.76618621      0.44826958      0.53966861
  H     -4.49273092     -1.67422616      0.38106455
  H     -4.21856233     -0.98671496     -1.21054000
  H     -2.03221208     -1.61600158     -0.38122669
  H     -2.33834060     -0.94202799      1.21057169
