  26
Step 8
  C     -6.71300267      0.50685831     -0.98627963
  C     -7.15363324      0.17971401      0.29626386
  C     -6.23629087      0.03900463      1.33530723
  C     -4.85661441      0.21745320      1.12302827
  C     -4.43142642      0.55494816     -0.17728170
  C     -5.34662457      0.69479740     -1.21513170
  C     -3.94126850      0.04731294      2.25548233
  C     -2.59374816      0.05382522      2.21687364
  C     -1.67542748     -0.11063906      3.34739931
  C     -0.30020193     -0.25438377      3.08501374
  C      0.62100533     -0.42206354      4.11645183
  C      0.18918513     -0.44515904      5.44260131
  C     -1.17230368     -0.29553755      5.72360786
  C     -2.09161868     -0.12825245      4.69324009
  H      0.04397966     -0.23790222      2.05384013
  H     -3.14142313      0.00258163      4.93654302
  H     -1.51759662     -0.30365865      6.75364740
  H      0.90369750     -0.57264961      6.25032147
  H      1.67616590     -0.53390684      3.88382588
  H     -2.09999087      0.17639643      1.25444563
  H     -4.43685710     -0.11555514      3.21116651
  H     -6.58678573     -0.21761270      2.33194106
  H     -3.37708444      0.71876458     -0.37671898
  H     -4.99419802      0.95677510     -2.20882213
  H     -8.21275854      0.03428875      0.48889808
  H     -7.42441645      0.61887319     -1.79902853
