  14
Step 17
  C     -2.52526266     -0.78508656      0.13514022
  C     -1.91270670      0.53765627     -0.26583348
  C     -2.63715578      1.66706451     -0.20707922
  C     -4.04415080      1.63403509      0.20716231
  C     -4.71425691      0.47148192      0.26577433
  C     -4.03948049     -0.82081592     -0.13506195
  H     -0.86091111      0.56512049     -0.53977601
  H     -2.18793628      2.62757095     -0.44654146
  H     -4.53849100      2.57209327      0.44667711
  H     -5.76618621      0.44826958      0.53966861
  H     -4.49273092     -1.67422616      0.38106455
  H     -4.21856233     -0.98671496     -1.21054000
  H     -2.03221208     -1.61600158     -0.38122669
  H     -2.33834060     -0.94202799      1.21057169
 14
 Step 8
  C -2.456224 -0.541259 0.443655
  C -1.843900 0.571484 -0.255782
  C -2.626972 1.708536 -0.319976
  C -3.943848 1.583858 0.160369
  C -4.469742 0.264255 0.328849
  C -4.441146 -0.878676 -0.542173
  H -0.962382 0.417642 -0.850671
  H -2.239157 2.647067 -0.678963
  H -4.450299 2.406082 0.632709
  H -5.100565 0.121056 1.196417
  H -4.948616 -1.773278 -0.240812
  H -4.015786 -0.833530 -1.523757
  H -2.204346 -1.543858 0.145187
  H -2.605518 -0.446112 1.504954
