 10 
 Step 10
  C -6.517664 3.453786 -0.044032 
  C -6.992859 2.310446 0.673936 
  H -5.666674 3.952775 0.386463 
  H -7.271742 4.146527 -0.369399 
  H -6.329340 1.728499 1.284490 
  H -7.961189 1.897283 0.465488 
  O -5.899773 3.102768 -1.597973 
  C -5.201176 1.989498 -1.659383 
  H -4.704350 1.818500 -2.594538 
  H -4.889442 1.487635 -0.766060 
 10 
 Step 10
  C -6.430754 5.155475 -0.136602 
  C -6.410228 3.743355 -0.130398 
  H -5.587735 5.718143 0.214112 
  H -7.233002 5.689355 -0.608099 
  H -5.782603 3.287885 0.620527 
  H -7.373896 3.266542 -0.203544 
  O -5.726008 3.182565 -1.478800 
  C -5.317889 1.934524 -1.437333 
  H -4.996520 1.494584 -2.359857 
  H -5.306420 1.384302 -0.514964 
